<?xml version="1.0" encoding="UTF-8"?>

<!-- generated on 2026-01-29T16:48:35.793051+00:00 by Eclipse SUMO sumo 1.25.0
<sumoConfiguration xmlns:xsi="http://www.w3.org/2001/XMLSchema-instance" xsi:noNamespaceSchemaLocation="http://sumo.dlr.de/xsd/sumoConfiguration.xsd">

    <input>
        <net-file value="C:\Users\manda\OneDrive\Documents\AI Traffic - Jupyter\my_network.net.xml"/>
        <route-files value="C:\Users\manda\OneDrive\Documents\AI Traffic - Jupyter\my_routes.rou.xml"/>
    </input>

    <output>
        <tripinfo-output value="C:\Users\manda\OneDrive\Documents\AI Traffic - Jupyter\tripinfo_baseline.xml"/>
    </output>

    <time>
        <begin value="0"/>
        <end value="3600"/>
        <step-length value="1"/>
    </time>

    <report>
        <verbose value="true"/>
        <no-step-log value="true"/>
    -->

<tripinfos xmlns:xsi="http://www.w3.org/2001/XMLSchema-instance" xsi:noNamespaceSchemaLocation="http://sumo.dlr.de/xsd/tripinfo_file.xsd">
</tripinfos>
g/2001/XMLSchema-instance" xsi:noNamespaceSchemaLocation="http://sumo.dlr.de/xsd/tripinfo_file.xsd">
    <tripinfo id="trip2" depart="0.00" departLane="-974103232#1_0" departPos="0.20" departSpeed="0.00" departDelay="0.00" arrival="3.00" arrivalLane="-974103232#0_0" arrivalPos="0.20" arrivalSpeed="4.60" duration="3.00" routeLength="6.21" waitingTime="0.00" waitingCount="0" stopTime="0.00" timeLoss="2.32" rerouteNo="0" devices="tripinfo_trip2" vType="DEFAULT_VEHTYPE" speedFactor="1.01" vaporized=""/>
    <tripinfo id="trip12" depart="3.00" departLane="164073716#2_0" departPos="3.03" departSpeed="0.00" departDelay="0.00" arrival="6.00" arrivalLane="821520605_0" arrivalPos="0.58" arrivalSpeed="6.33" duration="3.00" routeLength="9.85" waitingTime="0.00" waitingCount="0" stopTime="0.00" timeLoss="2.19" rerouteNo="0" devices="tripinfo_trip12" vType="DEFAULT_VEHTYPE" speedFactor="1.05" vaporized=""/>
    <tripinfo id="trip23" depart="8.00" departLane="315129223#1_0" departPos="4.72" departSpeed="0.00" departDelay="2.00" arrival="9.00" arrivalLane="315129223#1_0" arrivalPos="4.72" arrivalSpeed="1.79" duration="1.00" routeLength="0.00" waitingTime="0.00" waitingCount="0" stopTime="0.00" timeLoss="0.85" rerouteNo="0" devices="tripinfo_trip23" vType="DEFAULT_VEHTYPE" speedFactor="0.89" vaporized=""/>
    <tripinfo id="trip8" depart="2.00" departLane="107445426#0_0" departPos="5.10" departSpeed="0.00" departDelay="0.00" arrival="10.00" arrivalLane="-974103232#1_0" arrivalPos="0.20" arrivalSpeed="11.44" duration="8.00" routeLength="35.07" waitingTime="1.00" waitingCount="1" stopTime="0.00" timeLoss="4.68" rerouteNo="0" devices="tripinfo_trip8" vType="DEFAULT_VEHTYPE" speedFactor="0.94" vaporized=""/>
    <tripinfo id="trip16" depart="6.00" departLane="821520605_0" departPos="0.58" departSpeed="0.00" departDelay="1.00" arrival="10.00" arrivalLane="223051913#1_0" arrivalPos="0.10" arrivalSpeed="7.51" duration="4.00" routeLength="15.65" waitingTime="0.00" waitingCount="0" stopTime="0.00" timeLoss="2.51" rerouteNo="0" devices="tripinfo_trip16" vType="DEFAULT_VEHTYPE" speedFactor="0.88" vaporized=""/>
    <tripinfo id="trip37" depart="10.00" departLane="16151549#1_0" departPos="1.87" departSpeed="0.00" departDelay="0.00" arrival="11.00" arrivalLane="16151549#1_0" arrivalPos="1.87" arrivalSpeed="1.89" duration="1.00" routeLength="0.00" waitingTime="0.00" waitingCount="0" stopTime="0.00" timeLoss="0.82" rerouteNo="0" devices="tripinfo_trip37" vType="DEFAULT_VEHTYPE" speedFactor="1.18" vaporized=""/>
    <tripinfo id="trip6" depart="2.00" departLane="15833384#1_0" departPos="5.10" departSpeed="0.00" departDelay="0.00" arrival="12.00" arrivalLane="974103232#0_0" arrivalPos="0.20" arrivalSpeed="5.92" duration="10.00" routeLength="60.66" waitingTime="0.00" waitingCount="0" stopTime="0.00" timeLoss="5.09" rerouteNo="0" devices="tripinfo_trip6" vType="DEFAULT_VEHTYPE" speedFactor="1.05" vaporized=""/>
    <tripinfo id="trip4" depart="1.00" departLane="315129223#4_0" departPos="1.44" departSpeed="0.00" departDelay="0.00" arrival="13.00" arrivalLane="-974103232#1_0" arrivalPos="0.20" arrivalSpeed="11.55" duration="12.00" routeLength="53.43" waitingTime="0.00" waitingCount="0" stopTime="0.00" timeLoss="7.65" rerouteNo="0" devices="tripinfo_trip4" vType="DEFAULT_VEHTYPE" speedFactor="1.03" vaporized=""/>
    <tripinfo id="trip19" depart="12.00" departLane="315129223#3_0" departPos="0.37" departSpeed="0.00" departDelay="7.00" arrival="13.00" arrivalLane="315129223#3_0" arrivalPos="0.37" arrivalSpeed="1.98" duration="1.00" routeLength="0.00" waitingTime="0.00" waitingCount="0" stopTime="0.00" timeLoss="0.87" rerouteNo="0" devices="tripinfo_trip19" vType="DEFAULT_VEHTYPE" speedFactor="1.16" vaporized=""/>
    <tripinfo id="trip46" depart="12.00" departLane="821520601#1_0" departPos="3.56" departSpeed="0.00" departDelay="0.00" arrival="13.00" arrivalLane="821520601#1_0" arrivalPos="3.56" arrivalSpeed="1.64" duration="1.00" routeLength="0.00" waitingTime="0.00" waitingCount="0" stopTime="0.00" timeLoss="0.91" rerouteNo="0" devices="tripinfo_trip46" vType="DEFAULT_VEHTYPE" speedFactor="1.00" vaporized=""/>
    <tripinfo id="trip14" depart="7.00" departLane="315129223#4_0" departPos="1.44" departSpeed="0.00" departDelay="3.00" arrival="14.00" arrivalLane="800859756#1_0" arrivalPos="2.29" arrivalSpeed="9.62" duration="7.00" routeLength="22.81" waitingTime="1.00" waitingCount="1" stopTime="0.00" timeLoss="5.30" rerouteNo="0" devices="tripinfo_trip14" vType="DEFAULT_VEHTYPE" speedFactor="0.99" vaporized=""/>
    <tripinfo id="trip39" depart="14.00" departLane="107445428#0_0" departPos="0.20" departSpeed="0.00" departDelay="3.00" arrival="15.00" arrivalLane="107445428#0_0" arrivalPos="0.20" arrivalSpeed="1.36" duration="1.00" routeLength="0.00" waitingTime="0.00" waitingCount="0" stopTime="0.00" timeLoss="0.89" rerouteNo="0" devices="tripinfo_trip39" vType="DEFAULT_VEHTYPE" speedFactor="0.90" vaporized=""/>
    <tripinfo id="trip56" depart="14.00" departLane="223051913#2_0" departPos="5.10" departSpeed="0.00" departDelay="0.00" arrival="15.00" arrivalLane="223051913#2_0" arrivalPos="5.11" arrivalSpeed="2.54" duration="1.00" routeLength="0.01" waitingTime="0.00" waitingCount="0" stopTime="0.00" timeLoss="0.79" rerouteNo="0" devices="tripinfo_trip56" vType="DEFAULT_VEHTYPE" speedFactor="0.90" vaporized=""/>
    <tripinfo id="trip3" depart="1.00" departLane="120142871_0" departPos="5.10" departSpeed="0.00" departDelay="0.00" arrival="17.00" arrivalLane="15805292#1_0" arrivalPos="63.66" arrivalSpeed="14.36" duration="16.00" routeLength="150.33" waitingTime="0.00" waitingCount="0" stopTime="0.00" timeLoss="5.52" rerouteNo="0" devices="tripinfo_trip3" vType="DEFAULT_VEHTYPE" speedFactor="1.08" vaporized=""/>
    <tripinfo id="trip9" depart="2.00" departLane="822595543_0" departPos="5.10" departSpeed="0.00" departDelay="0.00" arrival="17.00" arrivalLane="821520601#2_0" arrivalPos="11.37" arrivalSpeed="14.97" duration="15.00" routeLength="159.67" waitingTime="0.00" waitingCount="0" stopTime="0.00" timeLoss="3.88" rerouteNo="0" devices="tripinfo_trip9" vType="DEFAULT_VEHTYPE" speedFactor="0.86" vaporized=""/>
    <tripinfo id="trip11" depart="3.00" departLane="164073716#1_0" departPos="1.47" departSpeed="0.00" departDelay="0.00" arrival="17.00" arrivalLane="315129218#1_0" arrivalPos="0.80" arrivalSpeed="5.60" duration="14.00" routeLength="23.09" waitingTime="4.00" waitingCount="2" stopTime="0.00" timeLoss="12.48" rerouteNo="0" devices="tripinfo_trip11" vType="DEFAULT_VEHTYPE" speedFactor="1.03" vaporized=""/>
    <tripinfo id="trip10" depart="2.00" departLane="164073716#2_0" departPos="3.03" departSpeed="0.00" departDelay="0.00" arrival="20.00" arrivalLane="107445426#1_0" arrivalPos="0.85" arrivalSpeed="6.07" duration="18.00" routeLength="32.72" waitingTime="4.00" waitingCount="2" stopTime="0.00" timeLoss="15.05" rerouteNo="0" devices="tripinfo_trip10" vType="DEFAULT_VEHTYPE" speedFactor="1.09" vaporized=""/>
    <tripinfo id="trip22" depart="5.00" departLane="15805292#0_0" departPos="5.10" departSpeed="0.00" departDelay="0.00" arrival="20.00" arrivalLane="-120142871_0" arrivalPos="86.58" arrivalSpeed="12.79" duration="15.00" routeLength="120.57" waitingTime="0.00" waitingCount="0" stopTime="0.00" timeLoss="4.72" rerouteNo="0" devices="tripinfo_trip22" vType="DEFAULT_VEHTYPE" speedFactor="0.97" vaporized=""/>
    <tripinfo id="trip33" depart="9.00" departLane="107445428#0_0" departPos="0.20" departSpeed="0.00" departDelay="0.00" arrival="20.00" arrivalLane="822595541_0" arrivalPos="29.97" arrivalSpeed="14.52" duration="11.00" routeLength="64.26" waitingTime="0.00" waitingCount="0" stopTime="0.00" timeLoss="7.25" rerouteNo="0" devices="tripinfo_trip33" vType="DEFAULT_VEHTYPE" speedFactor="1.17" vaporized=""/>
    <tripinfo id="trip44" depart="18.00" departLane="974103232#0_0" departPos="0.20" departSpeed="0.00" departDelay="6.00" arrival="20.00" arrivalLane="974103232#1_0" arrivalPos="0.20" arrivalSpeed="4.47" duration="2.00" routeLength="6.22" waitingTime="0.00" waitingCount="0" stopTime="0.00" timeLoss="1.52" rerouteNo="0" devices="tripinfo_trip44" vType="DEFAULT_VEHTYPE" speedFactor="1.04" vaporized=""/>
    <tripinfo id="trip1" depart="0.00" departLane="315129223#1_0" departPos="4.72" departSpeed="0.00" departDelay="0.00" arrival="21.00" arrivalLane="800859756#2_1" arrivalPos="4.15" arrivalSpeed="13.73" duration="21.00" routeLength="207.75" waitingTime="0.00" waitingCount="0" stopTime="0.00" timeLoss="4.70" rerouteNo="0" devices="tripinfo_trip1" vType="DEFAULT_VEHTYPE" speedFactor="0.94" vaporized=""/>
    <tripinfo id="trip34" depart="9.00" departLane="822595543_0" departPos="5.10" departSpeed="0.00" departDelay="0.00" arrival="21.00" arrivalLane="821520601#0_0" arrivalPos="64.82" arrivalSpeed="16.76" duration="12.00" routeLength="143.36" waitingTime="0.00" waitingCount="0" stopTime="0.00" timeLoss="3.92" rerouteNo="0" devices="tripinfo_trip34" vType="DEFAULT_VEHTYPE" speedFactor="0.99" vaporized=""/>
    <tripinfo id="trip7" depart="4.00" departLane="315129223#2_0" departPos="5.10" departSpeed="0.00" departDelay="2.00" arrival="22.00" arrivalLane="315129223#3_1" arrivalPos="0.37" arrivalSpeed="10.09" duration="18.00" routeLength="161.84" waitingTime="0.00" waitingCount="0" stopTime="0.00" timeLoss="3.69" rerouteNo="0" devices="tripinfo_trip7" vType="DEFAULT_VEHTYPE" speedFactor="0.89" vaporized=""/>
    <tripinfo id="trip61" depart="20.00" departLane="107445426#0_0" departPos="5.10" departSpeed="0.00" departDelay="5.00" arrival="22.00" arrivalLane="107445426#1_0" arrivalPos="0.85" arrivalSpeed="2.97" duration="2.00" routeLength="1.78" waitingTime="0.00" waitingCount="0" stopTime="0.00" timeLoss="1.71" rerouteNo="0" devices="tripinfo_trip61" vType="DEFAULT_VEHTYPE" speedFactor="1.12" vaporized=""/>
    <tripinfo id="trip65" depart="21.00" departLane="324489280#1_0" departPos="5.10" departSpeed="0.00" departDelay="5.00" arrival="22.00" arrivalLane="324489280#1_0" arrivalPos="5.95" arrivalSpeed="2.26" duration="1.00" routeLength="0.85" waitingTime="0.00" waitingCount="0" stopTime="0.00" timeLoss="0.86" rerouteNo="0" devices="tripinfo_trip65" vType="DEFAULT_VEHTYPE" speedFactor="0.88" vaporized=""/>
    <tripinfo id="trip66" depart="17.00" departLane="-15805292#0_0" departPos="5.10" departSpeed="0.00" departDelay="0.00" arrival="22.00" arrivalLane="-15805292#0_0" arrivalPos="29.92" arrivalSpeed="10.90" duration="5.00" routeLength="24.82" waitingTime="0.00" waitingCount="0" stopTime="0.00" timeLoss="2.23" rerouteNo="0" devices="tripinfo_trip66" vType="DEFAULT_VEHTYPE" speedFactor="0.91" vaporized=""/>
    <tripinfo id="trip13" depart="4.00" departLane="315129223#4_0" departPos="1.44" departSpeed="0.00" departDelay="0.00" arrival="23.00" arrivalLane="-974103233_0" arrivalPos="31.27" arrivalSpeed="9.07" duration="19.00" routeLength="104.46" waitingTime="0.00" waitingCount="0" stopTime="0.00" timeLoss="9.66" rerouteNo="0" devices="tripinfo_trip13" vType="DEFAULT_VEHTYPE" speedFactor="1.12" vaporized=""/>
    <tripinfo id="trip58" depart="22.00" departLane="315129223#3_0" departPos="0.37" departSpeed="0.00" departDelay="7.00" arrival="23.00" arrivalLane="315129223#3_0" arrivalPos="0.37" arrivalSpeed="2.34" duration="1.00" routeLength="0.00" waitingTime="0.00" waitingCount="0" stopTime="0.00" timeLoss="0.83" rerouteNo="0" devices="tripinfo_trip58" vType="DEFAULT_VEHTYPE" speedFactor="1.02" vaporized=""/>
    <tripinfo id="trip26" depart="7.00" departLane="120142871_0" departPos="5.10" departSpeed="0.00" departDelay="0.00" arrival="24.00" arrivalLane="-15805292#0_0" arrivalPos="29.92" arrivalSpeed="12.10" duration="17.00" routeLength="121.74" waitingTime="0.00" waitingCount="0" stopTime="0.00" timeLoss="5.64" rerouteNo="0" devices="tripinfo_trip26" vType="DEFAULT_VEHTYPE" speedFactor="0.92" vaporized=""/>
    <tripinfo id="trip20" depart="5.00" departLane="315129223#1_0" departPos="4.72" departSpeed="0.00" departDelay="0.00" arrival="26.00" arrivalLane="315129223#4_1" arrivalPos="1.44" arrivalSpeed="6.44" duration="21.00" routeLength="175.73" waitingTime="1.00" waitingCount="1" stopTime="0.00" timeLoss="8.07" rerouteNo="0" devices="tripinfo_trip20" vType="DEFAULT_VEHTYPE" speedFactor="1.02" vaporized=""/>
    <tripinfo id="trip36" depart="12.00" departLane="822595543_0" departPos="5.10" departSpeed="0.00" departDelay="2.00" arrival="26.00" arrivalLane="821520601#2_0" arrivalPos="11.37" arrivalSpeed="16.17" duration="14.00" routeLength="159.67" waitingTime="0.00" waitingCount="0" stopTime="0.00" timeLoss="3.94" rerouteNo="0" devices="tripinfo_trip36" vType="DEFAULT_VEHTYPE" speedFactor="0.97" vaporized=""/>
    <tripinfo id="trip102" depart="26.00" departLane="821520601#1_0" departPos="3.56" departSpeed="0.00" departDelay="0.00" arrival="27.00" arrivalLane="821520601#1_0" arrivalPos="3.56" arrivalSpeed="1.87" duration="1.00" routeLength="0.00" waitingTime="0.00" waitingCount="0" stopTime="0.00" timeLoss="0.89" rerouteNo="0" devices="tripinfo_trip102" vType="DEFAULT_VEHTYPE" speedFactor="0.97" vaporized=""/>
    <tripinfo id="trip57" depart="16.00" departLane="315129223#3_0" departPos="0.37" departSpeed="0.00" departDelay="2.00" arrival="28.00" arrivalLane="107445426#1_0" arrivalPos="0.85" arrivalSpeed="5.59" duration="12.00" routeLength="28.67" waitingTime="2.00" waitingCount="1" stopTime="0.00" timeLoss="9.69" rerouteNo="0" devices="tripinfo_trip57" vType="DEFAULT_VEHTYPE" speedFactor="1.14" vaporized=""/>
    <tripinfo id="trip69" depart="17.00" departLane="16151549#1_0" departPos="1.87" departSpeed="0.00" departDelay="0.00" arrival="28.00" arrivalLane="16151549#3_0" arrivalPos="28.64" arrivalSpeed="8.43" duration="11.00" routeLength="73.80" waitingTime="0.00" waitingCount="0" stopTime="0.00" timeLoss="2.14" rerouteNo="0" devices="tripinfo_trip69" vType="DEFAULT_VEHTYPE" speedFactor="1.02" vaporized=""/>
    <tripinfo id="trip73" depart="18.00" departLane="821520605_0" departPos="0.58" departSpeed="0.00" departDelay="0.00" arrival="28.00" arrivalLane="821520603_0" arrivalPos="34.99" arrivalSpeed="14.04" duration="10.00" routeLength="62.86" waitingTime="0.00" waitingCount="0" stopTime="0.00" timeLoss="5.12" rerouteNo="0" devices="tripinfo_trip73" vType="DEFAULT_VEHTYPE" speedFactor="1.06" vaporized=""/>
    <tripinfo id="trip42" depart="14.00" departLane="107445426#1_0" departPos="0.85" departSpeed="0.00" departDelay="3.00" arrival="29.00" arrivalLane="-15833384#1_0" arrivalPos="56.16" arrivalSpeed="14.90" duration="15.00" routeLength="109.02" waitingTime="2.00" waitingCount="1" stopTime="0.00" timeLoss="6.63" rerouteNo="0" devices="tripinfo_trip42" vType="DEFAULT_VEHTYPE" speedFactor="1.09" vaporized=""/>
    <tripinfo id="trip47" depart="15.00" departLane="822595543_0" departPos="5.10" departSpeed="0.00" departDelay="2.00" arrival="29.00" arrivalLane="821520601#0_0" arrivalPos="64.82" arrivalSpeed="14.89" duration="14.00" routeLength="143.36" waitingTime="0.00" waitingCount="0" stopTime="0.00" timeLoss="4.65" rerouteNo="0" devices="tripinfo_trip47" vType="DEFAULT_VEHTYPE" speedFactor="0.90" vaporized=""/>
    <tripinfo id="trip53" depart="14.00" departLane="-974103232#0_0" departPos="0.20" departSpeed="0.00" departDelay="0.00" arrival="30.00" arrivalLane="-15833384#0_0" arrivalPos="109.94" arrivalSpeed="14.24" duration="16.00" routeLength="184.47" waitingTime="0.00" waitingCount="0" stopTime="0.00" timeLoss="2.96" rerouteNo="0" devices="tripinfo_trip53" vType="DEFAULT_VEHTYPE" speedFactor="1.10" vaporized=""/>
    <tripinfo id="trip31" depart="8.00" departLane="324489280#2_0" departPos="0.20" departSpeed="0.00" departDelay="0.00" arrival="31.00" arrivalLane="821520601#1_0" arrivalPos="3.56" arrivalSpeed="20.49" duration="23.00" routeLength="163.58" waitingTime="5.00" waitingCount="1" stopTime="0.00" timeLoss="14.30" rerouteNo="0" devices="tripinfo_trip31" vType="DEFAULT_VEHTYPE" speedFactor="1.15" vaporized=""/>
    <tripinfo id="trip52" depart="17.00" departLane="324489280#1_0" departPos="5.10" departSpeed="0.00" departDelay="3.00" arrival="33.00" arrivalLane="821520601#1_0" arrivalPos="3.56" arrivalSpeed="17.09" duration="16.00" routeLength="165.47" waitingTime="0.00" waitingCount="0" stopTime="0.00" timeLoss="6.10" rerouteNo="0" devices="tripinfo_trip52" vType="DEFAULT_VEHTYPE" speedFactor="1.02" vaporized=""/>
    <tripinfo id="trip133" depart="33.00" departLane="800859756#1_0" departPos="2.29" departSpeed="0.00" departDelay="0.00" arrival="34.00" arrivalLane="800859756#1_0" arrivalPos="2.29" arrivalSpeed="1.94" duration="1.00" routeLength="0.00" waitingTime="0.00" waitingCount="0" stopTime="0.00" timeLoss="0.90" rerouteNo="0" devices="tripinfo_trip133" vType="DEFAULT_VEHTYPE" speedFactor="1.04" vaporized=""/>
    <tripinfo id="trip24" depart="34.00" departLane="315129223#4_0" departPos="1.44" departSpeed="0.00" departDelay="28.00" arrival="35.00" arrivalLane="315129223#4_0" arrivalPos="1.44" arrivalSpeed="1.35" duration="1.00" routeLength="0.00" waitingTime="0.00" waitingCount="0" stopTime="0.00" timeLoss="0.88" rerouteNo="0" devices="tripinfo_trip24" vType="DEFAULT_VEHTYPE" speedFactor="0.83" vaporized=""/>
    <tripinfo id="trip62" depart="16.00" departLane="107445428#2_0" departPos="0.20" departSpeed="0.00" departDelay="1.00" arrival="35.00" arrivalLane="40349438#0_0" arrivalPos="194.80" arrivalSpeed="18.03" duration="19.00" routeLength="254.56" waitingTime="0.00" waitingCount="0" stopTime="0.00" timeLoss="4.13" rerouteNo="0" devices="tripinfo_trip62" vType="DEFAULT_VEHTYPE" speedFactor="1.02" vaporized=""/>
    <tripinfo id="trip80" depart="26.00" departLane="324489280#0_0" departPos="0.97" departSpeed="0.00" departDelay="6.00" arrival="36.00" arrivalLane="324489280#3_0" arrivalPos="0.20" arrivalSpeed="6.78" duration="10.00" routeLength="19.00" waitingTime="0.00" waitingCount="0" stopTime="0.00" timeLoss="8.67" rerouteNo="0" devices="tripinfo_trip80" vType="DEFAULT_VEHTYPE" speedFactor="1.03" vaporized=""/>
    <tripinfo id="trip95" depart="24.00" departLane="822595543_0" departPos="5.10" departSpeed="0.00" departDelay="0.00" arrival="36.00" arrivalLane="821520601#1_0" arrivalPos="3.56" arrivalSpeed="18.49" duration="12.00" routeLength="147.89" waitingTime="0.00" waitingCount="0" stopTime="0.00" timeLoss="4.05" rerouteNo="0" devices="tripinfo_trip95" vType="DEFAULT_VEHTYPE" speedFactor="1.06" vaporized=""/>
    <tripinfo id="trip68" depart="17.00" departLane="800859756#0_0" departPos="0.20" departSpeed="0.00" departDelay="0.00" arrival="37.00" arrivalLane="40349438#0_0" arrivalPos="194.80" arrivalSpeed="18.33" duration="20.00" routeLength="273.55" waitingTime="0.00" waitingCount="0" stopTime="0.00" timeLoss="4.59" rerouteNo="0" devices="tripinfo_trip68" vType="DEFAULT_VEHTYPE" speedFactor="1.04" vaporized=""/>
    <tripinfo id="trip141" depart="36.00" departLane="315129223#1_0" departPos="4.72" departSpeed="0.00" departDelay="2.00" arrival="37.00" arrivalLane="315129223#1_0" arrivalPos="4.72" arrivalSpeed="2.55" duration="1.00" routeLength="0.00" waitingTime="0.00" waitingCount="0" stopTime="0.00" timeLoss="0.84" rerouteNo="0" devices="tripinfo_trip141" vType="DEFAULT_VEHTYPE" speedFactor="1.16" vaporized=""/>
    <tripinfo id="trip40" depart="14.00" departLane="315129223#2_0" departPos="5.10" departSpeed="0.00" departDelay="3.00" arrival="39.00" arrivalLane="800859756#1_1" arrivalPos="2.29" arrivalSpeed="9.12" duration="25.00" routeLength="193.18" waitingTime="0.00" waitingCount="0" stopTime="0.00" timeLoss="11.24" rerouteNo="0" devices="tripinfo_trip40" vType="DEFAULT_VEHTYPE" speedFactor="1.03" vaporized=""/>
    <tripinfo id="trip117" depart="36.00" departLane="821520601#1_0" departPos="3.56" departSpeed="0.00" departDelay="7.00" arrival="40.00" arrivalLane="821520601#2_0" arrivalPos="11.37" arrivalSpeed="8.53" duration="4.00" routeLength="11.78" waitingTime="0.00" waitingCount="0" stopTime="0.00" timeLoss="2.88" rerouteNo="0" devices="tripinfo_trip117" vType="DEFAULT_VEHTYPE" speedFactor="1.00" vaporized=""/>
    <tripinfo id="trip143" depart="34.00" departLane="223051913#0_0" departPos="5.10" departSpeed="0.00" departDelay="0.00" arrival="40.00" arrivalLane="223051913#2_0" arrivalPos="5.11" arrivalSpeed="6.90" duration="6.00" routeLength="16.90" waitingTime="0.00" waitingCount="0" stopTime="0.00" timeLoss="4.83" rerouteNo="0" devices="tripinfo_trip143" vType="DEFAULT_VEHTYPE" speedFactor="1.13" vaporized=""/>
    <tripinfo id="trip79" depart="23.00" departLane="315129223#0_0" departPos="5.10" departSpeed="0.00" departDelay="4.00" arrival="41.00" arrivalLane="315129223#2_1" arrivalPos="166.47" arrivalSpeed="14.25" duration="18.00" routeLength="194.25" waitingTime="0.00" waitingCount="0" stopTime="0.00" timeLoss="3.76" rerouteNo="0" devices="tripinfo_trip79" vType="DEFAULT_VEHTYPE" speedFactor="1.09" vaporized=""/>
    <tripinfo id="trip149" depart="36.00" departLane="821520605_0" departPos="0.58" departSpeed="0.00" departDelay="0.00" arrival="41.00" arrivalLane="223051913#1_0" arrivalPos="0.10" arrivalSpeed="6.72" duration="5.00" routeLength="15.65" waitingTime="0.00" waitingCount="0" stopTime="0.00" timeLoss="3.52" rerouteNo="0" devices="tripinfo_trip149" vType="DEFAULT_VEHTYPE" speedFactor="1.04" vaporized=""/>
    <tripinfo id="trip165" depart="40.00" departLane="974103232#0_0" departPos="0.20" departSpeed="0.00" departDelay="0.00" arrival="41.00" arrivalLane="974103232#0_0" arrivalPos="0.20" arrivalSpeed="2.19" duration="1.00" routeLength="0.00" waitingTime="0.00" waitingCount="0" stopTime="0.00" timeLoss="0.82" rerouteNo="0" devices="tripinfo_trip165" vType="DEFAULT_VEHTYPE" speedFactor="0.91" vaporized=""/>
    <tripinfo id="trip70" depart="22.00" departLane="324489280#1_0" departPos="5.10" departSpeed="0.00" departDelay="4.00" arrival="42.00" arrivalLane="821520601#1_0" arrivalPos="3.56" arrivalSpeed="17.29" duration="20.00" routeLength="165.47" waitingTime="2.00" waitingCount="1" stopTime="0.00" timeLoss="10.37" rerouteNo="0" devices="tripinfo_trip70" vType="DEFAULT_VEHTYPE" speedFactor="1.02" vaporized=""/>
    <tripinfo id="trip121" depart="31.00" departLane="-974103232#1_0" departPos="0.20" departSpeed="0.00" departDelay="1.00" arrival="43.00" arrivalLane="-974103233_0" arrivalPos="31.27" arrivalSpeed="8.60" duration="12.00" routeLength="51.03" waitingTime="1.00" waitingCount="1" stopTime="0.00" timeLoss="6.40" rerouteNo="0" devices="tripinfo_trip121" vType="DEFAULT_VEHTYPE" speedFactor="1.10" vaporized=""/>
    <tripinfo id="trip123" depart="36.00" departLane="324489280#0_0" departPos="0.97" departSpeed="0.00" departDelay="6.00" arrival="43.00" arrivalLane="324489280#1_0" arrivalPos="5.95" arrivalSpeed="4.96" duration="7.00" routeLength="12.79" waitingTime="0.00" waitingCount="0" stopTime="0.00" timeLoss="6.06" rerouteNo="0" devices="tripinfo_trip123" vType="DEFAULT_VEHTYPE" speedFactor="1.02" vaporized=""/>
    <tripinfo id="trip157" depart="38.00" departLane="315129223#0_0" departPos="5.10" departSpeed="0.00" departDelay="0.00" arrival="43.00" arrivalLane="315129223#1_0" arrivalPos="4.72" arrivalSpeed="12.17" duration="5.00" routeLength="27.52" waitingTime="0.00" waitingCount="0" stopTime="0.00" timeLoss="2.43" rerouteNo="0" devices="tripinfo_trip157" vType="DEFAULT_VEHTYPE" speedFactor="1.08" vaporized=""/>
    <tripinfo id="trip86" depart="23.00" departLane="974103232#0_0" departPos="0.20" departSpeed="0.00" departDelay="2.00" arrival="44.00" arrivalLane="107445428#1_0" arrivalPos="3.63" arrivalSpeed="5.82" duration="21.00" routeLength="30.86" waitingTime="7.00" waitingCount="1" stopTime="0.00" timeLoss="18.46" rerouteNo="0" devices="tripinfo_trip86" vType="DEFAULT_VEHTYPE" speedFactor="1.00" vaporized=""/>
    <tripinfo id="trip87" depart="38.00" departLane="315129223#4_0" departPos="1.44" departSpeed="0.00" departDelay="17.00" arrival="44.00" arrivalLane="107445426#0_0" arrivalPos="5.81" arrivalSpeed="6.29" duration="6.00" routeLength="19.07" waitingTime="0.00" waitingCount="0" stopTime="0.00" timeLoss="4.07" rerouteNo="0" devices="tripinfo_trip87" vType="DEFAULT_VEHTYPE" speedFactor="1.04" vaporized=""/>
    <tripinfo id="trip140" depart="43.00" departLane="-974103232#0_0" departPos="0.20" departSpeed="0.00" departDelay="9.00" arrival="44.00" arrivalLane="-974103232#0_0" arrivalPos="0.20" arrivalSpeed="1.64" duration="1.00" routeLength="0.00" waitingTime="0.00" waitingCount="0" stopTime="0.00" timeLoss="0.89" rerouteNo="0" devices="tripinfo_trip140" vType="DEFAULT_VEHTYPE" speedFactor="1.11" vaporized=""/>
    <tripinfo id="trip82" depart="20.00" departLane="974103233_0" departPos="5.10" departSpeed="0.00" departDelay="0.00" arrival="45.00" arrivalLane="1193988979_0" arrivalPos="13.25" arrivalSpeed="5.27" duration="25.00" routeLength="62.53" waitingTime="7.00" waitingCount="2" stopTime="0.00" timeLoss="19.17" rerouteNo="0" devices="tripinfo_trip82" vType="DEFAULT_VEHTYPE" speedFactor="1.02" vaporized=""/>
    <tripinfo id="trip93" depart="27.00" departLane="40349438#0_0" departPos="5.10" departSpeed="0.00" departDelay="4.00" arrival="45.00" arrivalLane="40349438#1_0" arrivalPos="34.26" arrivalSpeed="15.20" duration="18.00" routeLength="224.86" waitingTime="0.00" waitingCount="0" stopTime="0.00" timeLoss="4.01" rerouteNo="0" devices="tripinfo_trip93" vType="DEFAULT_VEHTYPE" speedFactor="0.92" vaporized=""/>
    <tripinfo id="trip94" depart="43.00" departLane="324489280#2_0" departPos="0.20" departSpeed="0.00" departDelay="19.00" arrival="45.00" arrivalLane="324489280#3_0" arrivalPos="0.20" arrivalSpeed="3.94" duration="2.00" routeLength="5.17" waitingTime="0.00" waitingCount="0" stopTime="0.00" timeLoss="1.69" rerouteNo="0" devices="tripinfo_trip94" vType="DEFAULT_VEHTYPE" speedFactor="1.09" vaporized=""/>
    <tripinfo id="trip5" depart="2.00" departLane="822595542_0" departPos="5.10" departSpeed="0.00" departDelay="0.00" arrival="46.00" arrivalLane="821520601#1_0" arrivalPos="3.56" arrivalSpeed="14.60" duration="44.00" routeLength="322.58" waitingTime="2.00" waitingCount="1" stopTime="0.00" timeLoss="21.62" rerouteNo="0" devices="tripinfo_trip5" vType="DEFAULT_VEHTYPE" speedFactor="0.83" vaporized=""/>
    <tripinfo id="trip151" depart="39.00" departLane="821520605_0" departPos="0.58" departSpeed="0.00" departDelay="2.00" arrival="46.00" arrivalLane="223051913#2_0" arrivalPos="5.11" arrivalSpeed="9.22" duration="7.00" routeLength="27.58" waitingTime="0.00" waitingCount="0" stopTime="0.00" timeLoss="4.31" rerouteNo="0" devices="tripinfo_trip151" vType="DEFAULT_VEHTYPE" speedFactor="1.00" vaporized=""/>
    <tripinfo id="trip63" depart="15.00" departLane="107445428#0_0" departPos="0.20" departSpeed="0.00" departDelay="0.00" arrival="47.00" arrivalLane="40349438#1_0" arrivalPos="34.26" arrivalSpeed="17.59" duration="32.00" routeLength="302.41" waitingTime="6.00" waitingCount="1" stopTime="0.00" timeLoss="13.96" rerouteNo="0" devices="tripinfo_trip63" vType="DEFAULT_VEHTYPE" speedFactor="0.99" vaporized=""/>
    <tripinfo id="trip92" depart="26.00" departLane="315129223#0_0" departPos="5.10" departSpeed="0.00" departDelay="4.00" arrival="47.00" arrivalLane="315129223#3_1" arrivalPos="0.37" arrivalSpeed="10.07" duration="21.00" routeLength="194.72" waitingTime="0.00" waitingCount="0" stopTime="0.00" timeLoss="3.47" rerouteNo="0" devices="tripinfo_trip92" vType="DEFAULT_VEHTYPE" speedFactor="0.83" vaporized=""/>
    <tripinfo id="trip120" depart="29.00" departLane="107445426#0_0" departPos="5.10" departSpeed="0.00" departDelay="0.00" arrival="47.00" arrivalLane="-15833384#1_0" arrivalPos="56.16" arrivalSpeed="12.28" duration="18.00" routeLength="110.80" waitingTime="2.00" waitingCount="1" stopTime="0.00" timeLoss="8.24" rerouteNo="0" devices="tripinfo_trip120" vType="DEFAULT_VEHTYPE" speedFactor="0.94" vaporized=""/>
    <tripinfo id="trip190" depart="46.00" departLane="-974103232#1_0" departPos="0.20" departSpeed="0.00" departDelay="0.00" arrival="47.00" arrivalLane="-974103232#1_0" arrivalPos="0.20" arrivalSpeed="2.43" duration="1.00" routeLength="0.00" waitingTime="0.00" waitingCount="0" stopTime="0.00" timeLoss="0.80" rerouteNo="0" devices="tripinfo_trip190" vType="DEFAULT_VEHTYPE" speedFactor="0.90" vaporized=""/>
    <tripinfo id="trip15" depart="9.00" departLane="315129223#2_0" departPos="5.10" departSpeed="0.00" departDelay="5.00" arrival="48.00" arrivalLane="40349438#1_1" arrivalPos="34.26" arrivalSpeed="16.50" duration="39.00" routeLength="492.13" waitingTime="0.00" waitingCount="0" stopTime="0.00" timeLoss="5.67" rerouteNo="0" devices="tripinfo_trip15" vType="DEFAULT_VEHTYPE" speedFactor="0.93" vaporized=""/>